<?xml version="1.0"?>
<VTKFile type="UnstructuredGrid" version="0.1" byte_order="BigEndian">
 <UnstructuredGrid >
  <Piece NumberOfPoints="7402" NumberOfCells="14323">
   <Points >
    <DataArray type="Float32" NumberOfComponents="3" Format="ascii">
     7327.5 1885.5 -27425.0
     6992.1015625 1808.5 -27431.0
     7005.203125 1636.5 -27473.0
     6545.1015625 1277.5 -27539.0
     5806.6015625 682.5 -27630.0
     5684.703125 975.5 -27565.0
     5201.0 192.5 -27703.0
     6372.703125 1142.5 -27563.0
     4685.40234375 -221.5 -27767.0
     4922.203125 -32.5 -27737.0
     3947.80078125 -279.5 -27755.0
     4725.30078125 883.5 -27550.0
     3738.90234375 837.5 -27537.0
     2963.30078125 -310.5 -27733.0
     2752.80078125 811.5 -27521.0
     1997.703125 -315.5 -27697.0
     1781.80078125 780.5 -27489.0
     1073.6015625 -311.5 -27637.0
     845.30078125 706.5 -27428.0
     241.40234375 -321.5 -27545.0
     -23.296875 518.5 -27333.0
     -377.09765625 -353.5 -27430.0
     -699.998046875 82.5 -27238.0
     4040.30078125 -771.5 -27824.0
     3189.80078125 -1446.5 -27880.0
     3265.90234375 -1444.5 -27883.0
     2230.703125 -1450.5 -27829.0
     1294.5 -1405.5 -27757.0
     426.203125 -1319.5 -27653.0
     -319.498046875 -1185.5 -27502.0
     -921.69921875 -879.5 -27277.0
     3202.1015625 -1505.5 -27883.0
     3081.203125 -1629.5 -27878.0
     2431.203125 -2285.5 -27857.0
     1557.203125 -2570.5 -27771.0
     2154.6015625 -2586.5 -27832.0
     640.5 -2418.5 -27658.0
     -179.59765625 -2229.5 -27497.0
     -890.09765625 -1976.5 -27275.0
     1721.80078125 -3161.5 -27714.0
     898.5 -3575.5 -27531.0
     1340.40234375 -3707.5 -27580.0
     30.703125 -3310.5 -27380.0
     -751.09765625 -3077.5 -27145.0
     1044.5 -4280.5 -27362.0
     254.0 -4410.5 -27101.0
     884.703125 -4632.5 -27213.0
     -492.59765625 -4016.5 -26970.0
     9764.0 4890.5 -26256.0
     10546.0 5376.5 -25804.0
     9945.40234375 5610.5 -25745.0
     9317.1015625 5728.5 -25724.0
     8741.5 4971.5 -26280.0
     8347.30078125 5842.5 -25733.0
     7747.90234375 5023.5 -26281.0
     7352.203125 5912.5 -25742.0
     6750.703125 5059.5 -26270.0
     6354.80078125 5947.5 -25745.0
     5754.30078125 5077.5 -26255.0
     5357.703125 5955.5 -25736.0
     4755.703125 5073.5 -26232.0
     4361.703125 5939.5 -25701.0
     3752.1015625 5049.5 -26184.0
     3362.80078125 5908.5 -25615.0
     2742.1015625 5001.5 -26093.0
     2301.0 5899.5 -25418.0
     1773.5 4893.5 -25989.0
     1458.6015625 5554.5 -25476.0
     896.1015625 4828.5 -25822.0
     816.203125 5593.5 -25253.0
     11022.90234375 4223.5 -26485.0
     11705.0 4513.5 -26204.0
     10738.90234375 4272.5 -26491.0
     11492.40234375 5055.5 -25882.0
     12469.5 4832.5 -25884.0
     9848.40234375 3926.5 -26762.0
     9045.1015625 4032.5 -26740.0
     8067.80078125 4035.5 -26736.0
     7057.80078125 4050.5 -26714.0
     6061.5 4090.5 -26681.0
     5068.703125 4099.5 -26657.0
     4069.1015625 4085.5 -26632.0
     3063.5 4048.5 -26586.0
     2060.6015625 3978.5 -26507.0
     1060.90234375 3893.5 -26368.0
     167.40234375 4976.5 -25509.0
     -9.69921875 3886.5 -26112.0
     -655.3984375 4485.5 -25595.0
     -1062.998046875 3549.5 -26030.0
     -1357.998046875 4126.5 -25636.0
     10809.703125 4115.5 -26560.0
     10628.5 4018.5 -26619.0
     9971.0 3689.5 -26852.0
     9533.30078125 3424.5 -26972.0
     9271.203125 3264.5 -27044.0
     8375.1015625 3041.5 -27116.0
     8976.1015625 3071.5 -27114.0
     7287.80078125 2869.5 -27132.0
     6281.80078125 3025.5 -27046.0
     5308.5 3053.5 -27009.0
     4320.1015625 3045.5 -26989.0
     3321.0 3020.5 -26968.0
     2317.40234375 2967.5 -26926.0
     1306.1015625 2870.5 -26842.0
     257.6015625 2716.5 -26692.0
     -810.798828125 2564.5 -26488.0
     -1735.998046875 3513.5 -25877.0
     -1849.3984375 2546.5 -26226.0
     -2399.3984375 3157.5 -25832.0
     -2741.8984375 2251.5 -26068.0
     -3039.59765625 2778.5 -25769.0
     8469.5 2718.5 -27219.0
     7955.1015625 2345.5 -27314.0
     7656.80078125 2130.5 -27369.0
     6375.6015625 1983.5 -27350.0
     5493.0 1990.5 -27310.0
     4527.203125 1966.5 -27289.0
     3537.80078125 1941.5 -27276.0
     2544.203125 1907.5 -27256.0
     1553.80078125 1835.5 -27209.0
     553.703125 1670.5 -27119.0
     -561.59765625 1255.5 -26966.0
     -1623.998046875 1284.5 -26625.0
     -2533.19921875 1333.5 -26325.0
     -3309.3984375 2150.5 -25887.0
     -3246.498046875 1420.5 -26059.0
     -3720.498046875 1653.5 -25785.0
     6443.1015625 1197.5 -27553.0
     -1473.19921875 -164.5 -26927.0
     -2416.8984375 82.5 -26500.0
     -3211.69921875 347.5 -26144.0
     -3838.19921875 736.5 -25819.0
     -1559.69921875 -1665.5 -26953.0
     -2330.8984375 -1326.5 -26542.0
     -3176.798828125 -975.5 -26103.0
     -3911.19921875 -481.5 -25733.0
     -1382.3984375 -2742.5 -26912.0
     -2149.19921875 -2832.5 -26425.0
     -3027.59765625 -2325.5 -26000.0
     -4004.298828125 -2053.5 -25378.0
     -1383.298828125 -4059.5 -26456.0
     -2273.3984375 -4045.5 -25939.0
     -2867.798828125 -3507.5 -25772.0
     -3477.69921875 -3118.5 -25467.0
     677.703125 -5406.5 -26778.0
     554.30078125 -5590.5 -26649.0
     623.703125 -5598.5 -26672.0
     -470.69921875 -5095.5 -26461.0
     -1246.09765625 -5280.5 -25932.0
     -2068.998046875 -5188.5 -25411.0
     528.90234375 -6440.5 -26099.0
     -60.796875 -6134.5 -26028.0
     613.6015625 -5679.5 -26617.0
     531.90234375 -6440.5 -26100.0
     -784.3984375 -5993.5 -25734.0
     -1415.09765625 -5932.5 -25373.0
     532.40234375 -6448.5 -26094.0
     10072.30078125 6263.5 -25039.0
     10919.703125 6525.5 -24510.0
     10367.90234375 7057.5 -23809.0
     9320.0 7062.5 -24179.0
     8895.0 6497.5 -25046.0
     8324.30078125 7180.5 -24267.0
     7872.703125 6617.5 -25074.0
     7308.6015625 7284.5 -24282.0
     6866.5 6683.5 -25095.0
     6285.6015625 7326.5 -24333.0
     5865.0 6707.5 -25110.0
     5285.203125 7333.5 -24359.0
     4872.6015625 6701.5 -25102.0
     4305.40234375 7308.5 -24355.0
     3897.40234375 6669.5 -25058.0
     3364.40234375 7243.5 -24327.0
     2969.90234375 6627.5 -24962.0
     2523.90234375 7130.5 -24304.0
     2243.6015625 6640.5 -24787.0
     1927.90234375 6949.5 -24354.0
     15412.30078125 5758.5 -24425.0
     15248.0 5907.5 -24280.0
     15167.703125 5675.5 -24542.0
     15833.90234375 5894.5 -24218.0
     13925.1015625 5314.5 -25181.0
     14661.80078125 5515.5 -24792.0
     13905.90234375 5317.5 -25182.0
     14281.1015625 5920.5 -24415.0
     13318.30078125 5991.5 -24542.0
     12967.40234375 5444.5 -25261.0
     12544.5 6032.5 -24705.0
     12074.0 5640.5 -25260.0
     11757.30078125 6371.5 -24468.0
     11154.40234375 5909.5 -25193.0
     1405.6015625 6397.5 -24715.0
     605.30078125 6051.5 -24770.0
     13910.5 5309.5 -25188.0
     13897.1015625 5305.5 -25194.0
     13191.40234375 5072.5 -25536.0
     12475.1015625 4834.5 -25881.0
     12472.203125 4833.5 -25883.0
     250.30078125 5606.5 -25049.0
     -399.59765625 5318.5 -25046.0
     -1357.59765625 4902.5 -25048.0
     -2033.798828125 4040.5 -25458.0
     -2414.09765625 4716.5 -24821.0
     -2983.298828125 3644.5 -25326.0
     -3386.19921875 4483.5 -24644.0
     -3887.19921875 3564.5 -24992.0
     -4111.298828125 4238.5 -24539.0
     -3717.09765625 2562.5 -25499.0
     -4495.298828125 3627.5 -24703.0
     -4594.498046875 2648.5 -25006.0
     -5090.69921875 3297.5 -24541.0
     -5288.3984375 2451.5 -24704.0
     -5665.19921875 2822.5 -24378.0
     -4386.09765625 1358.5 -25408.0
     -5179.3984375 1541.5 -24913.0
     -5807.8984375 1867.5 -24492.0
     -4405.69921875 152.5 -25481.0
     -5085.69921875 217.5 -25038.0
     -5765.998046875 703.5 -24605.0
     -4681.998046875 -980.5 -25185.0
     -5321.69921875 -832.5 -24794.0
     -5682.69921875 -283.5 -24623.0
     -4704.298828125 -1939.5 -24947.0
     -5189.59765625 -1720.5 -24666.0
     -2763.3984375 -4510.5 -25373.0
     -3367.09765625 -4060.5 -25131.0
     -4019.298828125 -3508.5 -24830.0
     -4876.09765625 -2869.5 -24430.0
     -2708.998046875 -5155.5 -24994.0
     -3164.59765625 -4958.5 -24739.0
     -3804.498046875 -4608.5 -24378.0
     216.703125 -6799.5 -25647.0
     -364.798828125 -6745.5 -25357.0
     -1061.8984375 -6618.5 -25029.0
     -1823.3984375 -6448.5 -24588.0
     -2762.8984375 -5871.5 -24320.0
     -3487.3984375 -5414.5 -24066.0
     569.0 -6982.5 -25661.0
     179.0 -7474.5 -24956.0
     611.30078125 -7216.5 -25453.0
     694.1015625 -7736.5 -24998.0
     -644.19921875 -7316.5 -24608.0
     -1266.498046875 -7122.5 -24380.0
     11216.80078125 6855.5 -23892.0
     11786.0 6859.5 -23664.0
     11249.6015625 7323.5 -22894.0
     10281.703125 7583.5 -22771.0
     9490.30078125 7570.5 -23172.0
     8707.30078125 7559.5 -23507.0
     7749.203125 7795.5 -23250.0
     6636.30078125 7827.5 -23401.0
     5618.40234375 7844.5 -23474.0
     4627.0 7834.5 -23504.0
     3657.40234375 7783.5 -23510.0
     2721.40234375 7663.5 -23527.0
     1820.40234375 7402.5 -23657.0
     1571.40234375 6988.5 -24155.0
     1075.1015625 7070.5 -23798.0
     16783.80078125 6138.5 -23706.0
     16519.90234375 6400.5 -23391.0
     16260.90234375 6009.5 -23992.0
     17479.6015625 6334.5 -23344.0
     16091.703125 5962.5 -24081.0
     15545.0 6439.5 -23449.0
     14573.80078125 6463.5 -23544.0
     13594.90234375 6504.5 -23682.0
     12579.80078125 6569.5 -23881.0
     495.203125 6557.5 -24176.0
     -32.0 6000.5 -24557.0
     -375.298828125 6541.5 -23827.0
     -878.69921875 5826.5 -24390.0
     -1349.298828125 6454.5 -23554.0
     -1869.798828125 5628.5 -24224.0
     -2404.3984375 6305.5 -23360.0
     -2917.498046875 5422.5 -24059.0
     -3479.59765625 6109.5 -23228.0
     -4033.798828125 5106.5 -23934.0
     -4540.798828125 5968.5 -23032.0
     -5108.798828125 5028.5 -23570.0
     -5669.69921875 5938.5 -22691.0
     -6026.69921875 4837.5 -23335.0
     -6438.298828125 5372.5 -22873.0
     -4753.498046875 4226.5 -24247.0
     -5670.998046875 3836.5 -23978.0
[...]
   <CellData >
    <DataArray type="Float32" Name="regions" NumberOfComponents="4" Format="ascii">
      -10.0 59.0 67.0 -10.0 -10.0 59.0 67.0 -10.0 -10.0 59.0 67.0 -10.0 -10.0 59.0 67.0 -10.0 -10.0 59.0 67.0 -10.0 -10.0 59.0 67.0 -10.0 -10.0 59.0 67.0 -10.0 -10.0 59.0 67.0 -10.0 -10.0 59.0 67.0 -10.0 -10.0 59.0 67.0 -10.0 -10.0 59.0 67.0 -10.0 -10.0 59.0 67.0 -10.0 -10.0 59.0 67.0 -10.0 -10.0 59.0 67.0 -10.0 -10.0 59.0 67.0 -10.0 -10.0 59.0 67.0 -10.0 -10.0 59.0 67.0 -10.0 -10.0 59.0 67.0 -10.0 -10.0 59.0 67.0 -10.0 -10.0 59.0 67.0 -10.0 -10.0 59.0 67.0 -10.0 -10.0 59.0 67.0 -10.0 -10.0 59.0 67.0 -10.0 -10.0 59.0 67.0 -10.0 -10.0 59.0 67.0 -10.0 -10.0 59.0 67.0 -10.0 -10.0 59.0 67.0 -10.0 -10.0 59.0 67.0 -10.0 -10.0 59.0 67.0 -10.0 127.0 59.0 66.0 67.0 127.0 59.0 66.0 67.0 127.0 59.0 66.0 67.0 127.0 59.0 66.0 67.0 -10.0 59.0 67.0 -10.0 127.0 59.0 66.0 67.0 -10.0 59.0 67.0 -10.0 -10.0 59.0 67.0 -10.0 127.0 59.0 66.0 67.0 -10.0 59.0 66.0 -10.0 127.0 59.0 66.0 67.0 127.0 59.0 66.0 67.0 127.0 59.0 66.0 67.0 127.0 59.0 66.0 67.0 127.0 59.0 66.0 67.0 -10.0 59.0 66.0 -10.0 -10.0 59.0 66.0 -10.0 -10.0 59.0 66.0 -10.0 -10.0 59.0 66.0 -10.0 -10.0 59.0 66.0 -10.0 -10.0 59.0 66.0 -10.0 -10.0 59.0 66.0 -10.0 -10.0 59.0 66.0 -10.0 -10.0 59.0 66.0 -10.0 -10.0 59.0 66.0 -10.0 -10.0 59.0 66.0 -10.0 -10.0 59.0 66.0 -10.0 -10.0 59.0 66.0 -10.0 -10.0 59.0 66.0 -10.0 -10.0 59.0 66.0 -10.0 -10.0 59.0 66.0 -10.0 -10.0 59.0 67.0 -10.0 -10.0 59.0 67.0 -10.0 -10.0 59.0 67.0 -10.0 -10.0 59.0 67.0 -10.0 -10.0 59.0 67.0 -10.0 -10.0 59.0 67.0 -10.0 -10.0 59.0 67.0 -10.0 -10.0 59.0 67.0 -10.0 -10.0 59.0 67.0 -10.0 -10.0 59.0 67.0 -10.0 -10.0 59.0 67.0 -10.0 96.0 10.0 59.0 67.0 96.0 10.0 59.0 67.0 -10.0 10.0 -10.0 -10.0 -10.0 10.0 -10.0 -10.0 -10.0 10.0 -10.0 -10.0 -10.0 10.0 -10.0 -10.0 -10.0 10.0 -10.0 -10.0 -10.0 10.0 -10.0 -10.0 -10.0 10.0 -10.0 -10.0 -10.0 59.0 67.0 -10.0 128.0 59.0 67.0 68.0 128.0 59.0 67.0 68.0 128.0 59.0 67.0 68.0 -10.0 59.0 67.0 -10.0 -10.0 59.0 67.0 -10.0 -10.0 59.0 67.0 -10.0 -10.0 59.0 67.0 -10.0 -10.0 59.0 67.0 -10.0 -10.0 59.0 67.0 -10.0 -10.0 59.0 67.0 -10.0 -10.0 59.0 67.0 -10.0 -10.0 59.0 67.0 -10.0 -10.0 59.0 67.0 -10.0 -10.0 59.0 67.0 -10.0 -10.0 59.0 67.0 -10.0 96.0 10.0 59.0 67.0 -10.0 59.0 67.0 -10.0 -10.0 10.0 -10.0 -10.0 96.0 10.0 59.0 67.0 -10.0 10.0 -10.0 -10.0 -10.0 10.0 -10.0 -10.0 -10.0 10.0 -10.0 -10.0 -10.0 10.0 -10.0 -10.0 -10.0 10.0 -10.0 -10.0 -10.0 10.0 -10.0 -10.0 -10.0 10.0 -10.0 -10.0 -10.0 10.0 -10.0 -10.0 -10.0 10.0 -10.0 -10.0 -10.0 10.0 -10.0 -10.0 -10.0 59.0 67.0 -10.0 -10.0 59.0 67.0 -10.0 -10.0 59.0 67.0 -10.0 -10.0 59.0 67.0 -10.0 -10.0 59.0 67.0 -10.0 -10.0 59.0 67.0 -10.0 -10.0 59.0 67.0 -10.0 -10.0 59.0 67.0 -10.0 -10.0 59.0 67.0 -10.0 -10.0 59.0 67.0 -10.0 -10.0 59.0 67.0 -10.0 -10.0 59.0 67.0 -10.0 -10.0 59.0 67.0 -10.0 -10.0 59.0 67.0 -10.0 -10.0 59.0 67.0 -10.0 -10.0 59.0 67.0 -10.0 -10.0 59.0 67.0 -10.0 -10.0 59.0 67.0 -10.0 96.0 10.0 59.0 67.0 -10.0 59.0 67.0 -10.0 -10.0 10.0 -10.0 -10.0 96.0 10.0 59.0 67.0 -10.0 10.0 -10.0 -10.0 -10.0 10.0 -10.0 -10.0 -10.0 10.0 -10.0 -10.0 -10.0 10.0 -10.0 -10.0 -10.0 10.0 -10.0 -10.0 -10.0 10.0 -10.0 -10.0 -10.0 10.0 -10.0 -10.0 -10.0 10.0 -10.0 -10.0 -10.0 10.0 -10.0 -10.0 -10.0 10.0 -10.0 -10.0 -10.0 10.0 -10.0 -10.0 -10.0 10.0 -10.0 -10.0 -10.0 59.0 67.0 -10.0 -10.0 59.0 67.0 -10.0 -10.0 59.0 67.0 -10.0 -10.0 59.0 67.0 -10.0 -10.0 59.0 67.0 -10.0 -10.0 59.0 67.0 -10.0 -10.0 59.0 67.0 -10.0 -10.0 59.0 67.0 -10.0 -10.0 59.0 67.0 -10.0 -10.0 59.0 67.0 -10.0 -10.0 59.0 67.0 -10.0 -10.0 59.0 67.0 -10.0 -10.0 59.0 67.0 -10.0 -10.0 59.0 67.0 -10.0 96.0 10.0 59.0 67.0 -10.0 59.0 67.0 -10.0 -10.0 10.0 -10.0 -10.0 96.0 10.0 59.0 67.0 -10.0 10.0 -10.0 -10.0 -10.0 10.0 -10.0 -10.0 -10.0 10.0 -10.0 -10.0 -10.0 10.0 -10.0 -10.0 -10.0 10.0 -10.0 -10.0 -10.0 10.0 -10.0 -10.0 -10.0 10.0 -10.0 -10.0 -10.0 10.0 -10.0 -10.0 -10.0 10.0 -10.0 -10.0 -10.0 10.0 -10.0 -10.0 -10.0 10.0 -10.0 -10.0 -10.0 10.0 -10.0 -10.0 -10.0 59.0 67.0 -10.0 -10.0 59.0 67.0 -10.0 -10.0 59.0 67.0 -10.0 -10.0 59.0 67.0 -10.0 -10.0 59.0 67.0 -10.0 -10.0 59.0 67.0 -10.0 -10.0 59.0 67.0 -10.0 -10.0 59.0 67.0 -10.0 -10.0 59.0 67.0 -10.0 -10.0 59.0 67.0 -10.0 -10.0 59.0 67.0 -10.0 -10.0 59.0 67.0 -10.0 96.0 10.0 59.0 67.0 96.0 10.0 59.0 67.0 96.0 10.0 59.0 67.0 96.0 10.0 59.0 67.0 96.0 10.0 59.0 67.0 96.0 10.0 59.0 67.0 127.0 10.0 58.0 59.0 95.0 10.0 58.0 59.0 80.0 10.0 58.0 -10.0 95.0 10.0 58.0 59.0 80.0 10.0 58.0 -10.0 80.0 10.0 58.0 -10.0 80.0 10.0 58.0 -10.0 80.0 10.0 58.0 -10.0 -10.0 59.0 66.0 -10.0 127.0 59.0 66.0 67.0 95.0 58.0 59.0 66.0 -10.0 59.0 66.0 -10.0 -10.0 58.0 -10.0 -10.0 95.0 58.0 59.0 66.0 -10.0 58.0 -10.0 -10.0 -10.0 58.0 -10.0 -10.0 -10.0 59.0 66.0 -10.0 -10.0 59.0 66.0 -10.0 126.0 59.0 65.0 66.0 126.0 59.0 65.0 66.0 126.0 57.0 58.0 59.0 126.0 59.0 65.0 66.0 79.0 57.0 58.0 -10.0 79.0 57.0 58.0 -10.0 126.0 59.0 65.0 66.0 -10.0 59.0 66.0 -10.0 -10.0 59.0 65.0 -10.0 -10.0 59.0 65.0 -10.0 126.0 59.0 65.0 66.0 -10.0 59.0 65.0 -10.0 -10.0 59.0 65.0 -10.0 94.0 57.0 59.0 65.0 126.0 59.0 65.0 66.0 126.0 59.0 65.0 66.0 -10.0 59.0 65.0 -10.0 126.0 59.0 65.0 66.0 126.0 59.0 65.0 66.0 126.0 59.0 65.0 66.0 126.0 59.0 65.0 66.0 -10.0 59.0 65.0 -10.0 -10.0 59.0 65.0 -10.0 -10.0 59.0 65.0 -10.0 -10.0 59.0 65.0 -10.0 -10.0 59.0 65.0 -10.0 -10.0 59.0 65.0 -10.0 -10.0 59.0 65.0 -10.0 -10.0 59.0 65.0 -10.0 -10.0 59.0 65.0 -10.0 -10.0 59.0 65.0 -10.0 -10.0 59.0 65.0 -10.0 -10.0 59.0 65.0 -10.0 -10.0 59.0 65.0 -10.0 128.0 10.0 59.0 67.0 96.0 10.0 59.0 67.0 96.0 10.0 59.0 67.0 -10.0 10.0 -10.0 -10.0 -10.0 10.0 -10.0 -10.0 -10.0 10.0 -10.0 -10.0 -10.0 10.0 -10.0 -10.0 -10.0 10.0 -10.0 -10.0 -10.0 10.0 -10.0 -10.0 -10.0 10.0 -10.0 -10.0 -10.0 10.0 -10.0 -10.0 -10.0 10.0 -10.0 -10.0 -10.0 10.0 -10.0 -10.0 -10.0 10.0 -10.0 -10.0 -10.0 10.0 -10.0 -10.0 -10.0 10.0 -10.0 -10.0 -10.0 10.0 -10.0 -10.0 -10.0 10.0 -10.0 -10.0 -10.0 59.0 68.0 -10.0 -10.0 59.0 68.0 -10.0 -10.0 59.0 68.0 -10.0 -10.0 59.0 68.0 -10.0 -10.0 59.0 68.0 -10.0 -10.0 59.0 68.0 -10.0 -10.0 59.0 68.0 -10.0 -10.0 59.0 68.0 -10.0 -10.0 59.0 68.0 -10.0 -10.0 59.0 68.0 -10.0 -10.0 59.0 68.0 -10.0 -10.0 59.0 68.0 -10.0 -10.0 59.0 68.0 -10.0 128.0 59.0 67.0 68.0 128.0 59.0 67.0 68.0 -10.0 59.0 67.0 -10.0 -10.0 59.0 67.0 -10.0 96.0 10.0 59.0 67.0 96.0 10.0 59.0 67.0 96.0 10.0 59.0 67.0 96.0 10.0 59.0 67.0 96.0 10.0 59.0 67.0 96.0 10.0 59.0 67.0 96.0 10.0 59.0 67.0 96.0 10.0 59.0 67.0 96.0 10.0 59.0 67.0 96.0 10.0 59.0 67.0 -10.0 10.0 -10.0 -10.0 -10.0 10.0 -10.0 -10.0 -10.0 10.0 -10.0 -10.0 -10.0 10.0 -10.0 -10.0 -10.0 10.0 -10.0 -10.0 -10.0 10.0 -10.0 -10.0 -10.0 10.0 -10.0 -10.0 -10.0 10.0 -10.0 -10.0 -10.0 10.0 -10.0 -10.0 -10.0 10.0 -10.0 -10.0 -10.0 59.0 68.0 -10.0 -10.0 59.0 68.0 -10.0 -10.0 59.0 68.0 -10.0 -10.0 59.0 68.0 -10.0 -10.0 59.0 68.0 -10.0 -10.0 59.0 68.0 -10.0 -10.0 59.0 68.0 -10.0 -10.0 59.0 68.0 -10.0 -10.0 59.0 68.0 -10.0 -10.0 59.0 68.0 -10.0 128.0 59.0 67.0 68.0 -10.0 10.0 -10.0 -10.0 -10.0 10.0 -10.0 -10.0 -10.0 10.0 -10.0 -10.0 -10.0 10.0 -10.0 -10.0 -10.0 10.0 -10.0 -10.0 -10.0 10.0 -10.0 -10.0 -10.0 10.0 -10.0 -10.0 -10.0 10.0 -10.0 -10.0 -10.0 10.0 -10.0 -10.0 -10.0 10.0 -10.0 -10.0 -10.0 10.0 -10.0 -10.0 -10.0 10.0 -10.0 -10.0 -10.0 10.0 -10.0 -10.0 -10.0 10.0 -10.0 -10.0 -10.0 10.0 -10.0 -10.0 -10.0 10.0 -10.0 -10.0 -10.0 10.0 -10.0 -10.0 -10.0 10.0 -10.0 -10.0 -10.0 10.0 -10.0 -10.0 80.0 10.0 58.0 -10.0 80.0 10.0 58.0 -10.0 -10.0 58.0 -10.0 -10.0 80.0 10.0 58.0 -10.0 -10.0 58.0 -10.0 -10.0 -10.0 10.0 -10.0 -10.0 -10.0 10.0 -10.0 -10.0 80.0 10.0 58.0 -10.0 80.0 10.0 58.0 -10.0 -10.0 58.0 -10.0 -10.0 -10.0 58.0 -10.0 -10.0 -10.0 58.0 -10.0 -10.0 -10.0 58.0 -10.0 -10.0 -10.0 58.0 -10.0 -10.0 80.0 10.0 58.0 -10.0 -10.0 58.0 -10.0 -10.0 -10.0 58.0 -10.0 -10.0 -10.0 58.0 -10.0 -10.0 -10.0 58.0 -10.0 -10.0 -10.0 58.0 -10.0 -10.0 -10.0 58.0 -10.0 -10.0 -10.0 58.0 -10.0 -10.0 -10.0 58.0 -10.0 -10.0 -10.0 58.0 -10.0 -10.0 -10.0 58.0 -10.0 -10.0 79.0 57.0 58.0 -10.0 79.0 57.0 58.0 -10.0 79.0 57.0 58.0 -10.0 79.0 57.0 58.0 -10.0 -10.0 59.0 65.0 -10.0 -10.0 59.0 65.0 -10.0 -10.0 59.0 65.0 -10.0 94.0 57.0 59.0 65.0 94.0 57.0 59.0 65.0 -10.0 57.0 -10.0 -10.0 -10.0 57.0 -10.0 -10.0 -10.0 57.0 -10.0 -10.0 -10.0 59.0 65.0 -10.0 -10.0 59.0 65.0 -10.0 -10.0 59.0 65.0 -10.0 -10.0 59.0 65.0 -10.0 94.0 57.0 59.0 65.0 94.0 57.0 59.0 65.0 -10.0 59.0 65.0 -10.0 -10.0 59.0 65.0 -10.0 -10.0 59.0 65.0 -10.0 -10.0 59.0 65.0 -10.0 -10.0 59.0 65.0 -10.0 -10.0 59.0 65.0 -10.0 -10.0 59.0 65.0 -10.0 -10.0 59.0 65.0 -10.0 -10.0 59.0 65.0 -10.0 -10.0 59.0 65.0 -10.0 -10.0 59.0 65.0 -10.0 94.0 57.0 59.0 65.0 -10.0 59.0 65.0 -10.0 -10.0 59.0 65.0 -10.0 -10.0 59.0 65.0 -10.0 -10.0 59.0 65.0 -10.0 -10.0 59.0 65.0 -10.0 -10.0 59.0 65.0 -10.0 -10.0 59.0 65.0 -10.0 -10.0 59.0 65.0 -10.0 -10.0 59.0 65.0 -10.0 -10.0 59.0 65.0 -10.0 97.0 9.0 59.0 68.0 128.0 9.0 10.0 59.0 97.0 9.0 59.0 68.0 81.0 9.0 10.0 -10.0 -10.0 10.0 -10.0 -10.0 81.0 9.0 10.0 -10.0 -10.0 10.0 -10.0 -10.0 -10.0 10.0 -10.0 -10.0 -10.0 10.0 -10.0 -10.0 -10.0 10.0 -10.0 -10.0 -10.0 10.0 -10.0 -10.0 -10.0 10.0 -10.0 -10.0 -10.0 10.0 -10.0 -10.0 -10.0 10.0 -10.0 -10.0 -10.0 10.0 -10.0 -10.0 -10.0 10.0 -10.0 -10.0 -10.0 10.0 -10.0 -10.0 -10.0 10.0 -10.0 -10.0 -10.0 10.0 -10.0 -10.0 -10.0 10.0 -10.0 -10.0 -10.0 10.0 -10.0 -10.0 -10.0 10.0 -10.0 -10.0 -10.0 10.0 -10.0 -10.0 -10.0 10.0 -10.0 -10.0 -10.0 59.0 68.0 -10.0 -10.0 59.0 68.0 -10.0 -10.0 59.0 68.0 -10.0 -10.0 59.0 68.0 -10.0 -10.0 59.0 68.0 -10.0 -10.0 59.0 68.0 -10.0 -10.0 59.0 68.0 -10.0 -10.0 59.0 68.0 -10.0 -10.0 59.0 68.0 -10.0 -10.0 59.0 68.0 -10.0 -10.0 59.0 68.0 -10.0 -10.0 59.0 68.0 -10.0 -10.0 59.0 68.0 -10.0 -10.0 59.0 68.0 -10.0 -10.0 59.0 68.0 -10.0 -10.0 59.0 68.0 -10.0 -10.0 10.0 -10.0 -10.0 -10.0 10.0 -10.0 -10.0 -10.0 10.0 -10.0 -10.0 -10.0 10.0 -10.0 -10.0 -10.0 10.0 -10.0 -10.0 -10.0 10.0 -10.0 -10.0 -10.0 10.0 -10.0 -10.0 -10.0 10.0 -10.0 -10.0 -10.0 10.0 -10.0 -10.0 -10.0 10.0 -10.0 -10.0 -10.0 10.0 -10.0 -10.0 -10.0 10.0 -10.0 -10.0 -10.0 10.0 -10.0 -10.0 -10.0 10.0 -10.0 -10.0 -10.0 10.0 -10.0 -10.0 80.0 10.0 58.0 -10.0 -10.0 10.0 -10.0 -10.0 80.0 10.0 58.0 -10.0 -10.0 10.0 -10.0 -10.0 -10.0 10.0 -10.0 -10.0 -10.0 10.0 -10.0 -10.0 -10.0 10.0 -10.0 -10.0 -10.0 10.0 -10.0 -10.0 -10.0 10.0 -10.0 -10.0 -10.0 10.0 -10.0 -10.0 -10.0 10.0 -10.0 -10.0 -10.0 10.0 -10.0 -10.0 -10.0 10.0 -10.0 -10.0 -10.0 10.0 -10.0 -10.0 -10.0 10.0 -10.0 -10.0 80.0 10.0 58.0 -10.0 80.0 10.0 58.0 -10.0 -10.0 58.0 -10.0 -10.0 -10.0 58.0 -10.0 -10.0 -10.0 58.0 -10.0 -10.0 -10.0 58.0 -10.0 -10.0 -10.0 10.0 -10.0 -10.0 80.0 10.0 58.0 -10.0 80.0 10.0 58.0 -10.0 -10.0 58.0 -10.0 -10.0 -10.0 58.0 -10.0 -10.0 -10.0 58.0 -10.0 -10.0 -10.0 58.0 -10.0 -10.0 -10.0 58.0 -10.0 -10.0 -10.0 58.0 -10.0 -10.0 -10.0 58.0 -10.0 -10.0 -10.0 58.0 -10.0 -10.0 -10.0 58.0 -10.0 -10.0 -10.0 58.0 -10.0 -10.0 -10.0 58.0 -10.0 -10.0 -10.0 58.0 -10.0 -10.0 -10.0 58.0 -10.0 -10.0 -10.0 58.0 -10.0 -10.0 -10.0 58.0 -10.0 -10.0 -10.0 58.0 -10.0 -10.0 -10.0 58.0 -10.0 -10.0 -10.0 58.0 -10.0 -10.0 -10.0 58.0 -10.0 -10.0 79.0 57.0 58.0 -10.0 -10.0 58.0 -10.0 -10.0 79.0 57.0 58.0 -10.0 79.0 57.0 58.0 -10.0 79.0 57.0 58.0 -10.0 79.0 57.0 58.0 -10.0 79.0 57.0 58.0 -10.0 79.0 57.0 58.0 -10.0 -10.0 57.0 -10.0 -10.0 79.0 57.0 58.0 -10.0 -10.0 57.0 -10.0 -10.0 -10.0 57.0 -10.0 -10.0 -10.0 57.0 -10.0 -10.0 -10.0 57.0 -10.0 -10.0 -10.0 57.0 -10.0 -10.0 -10.0 57.0 -10.0 -10.0 -10.0 57.0 -10.0 -10.0 -10.0 57.0 -10.0 -10.0 -10.0 57.0 -10.0 -10.0 -10.0 57.0 -10.0 -10.0 -10.0 57.0 -10.0 -10.0 -10.0 57.0 -10.0 -10.0 -10.0 57.0 -10.0 -10.0 -10.0 57.0 -10.0 -10.0 125.0 59.0 64.0 65.0 125.0 59.0 64.0 65.0 -10.0 59.0 65.0 -10.0 125.0 59.0 64.0 65.0 94.0 57.0 59.0 65.0 94.0 57.0 59.0 65.0 125.0 59.0 64.0 65.0 125.0 59.0 64.0 65.0 -10.0 59.0 64.0 -10.0 125.0 59.0 64.0 65.0 125.0 59.0 64.0 65.0 125.0 59.0 64.0 65.0 125.0 59.0 64.0 65.0 125.0 59.0 64.0 65.0 125.0 59.0 64.0 65.0 125.0 59.0 64.0 65.0 -10.0 59.0 64.0 -10.0 -10.0 59.0 64.0 -10.0 -10.0 59.0 64.0 -10.0 -10.0 59.0 64.0 -10.0 -10.0 59.0 64.0 -10.0 -10.0 59.0 64.0 -10.0 -10.0 59.0 64.0 -10.0 -10.0 59.0 64.0 -10.0 -10.0 10.0 -10.0 -10.0 -10.0 10.0 -10.0 -10.0 -10.0 10.0 -10.0 -10.0 -10.0 10.0 -10.0 -10.0 -10.0 10.0 -10.0 -10.0 -10.0 10.0 -10.0 -10.0 -10.0 10.0 -10.0 -10.0 -10.0 10.0 -10.0 -10.0 -10.0 10.0 -10.0 -10.0 -10.0 10.0 -10.0 -10.0 -10.0 10.0 -10.0 -10.0 -10.0 10.0 -10.0 -10.0 -10.0 10.0 -10.0 -10.0 -10.0 10.0 -10.0 -10.0 -10.0 10.0 -10.0 -10.0 -10.0 10.0 -10.0 -10.0 -10.0 10.0 -10.0 -10.0 -10.0 10.0 -10.0 -10.0 -10.0 59.0 68.0 -10.0 -10.0 59.0 68.0 -10.0 -10.0 59.0 68.0 -10.0 -10.0 59.0 68.0 -10.0 -10.0 59.0 68.0 -10.0 -10.0 59.0 68.0 -10.0 -10.0 59.0 68.0 -10.0 -10.0 59.0 68.0 -10.0 -10.0 59.0 68.0 -10.0 -10.0 59.0 68.0 -10.0 -10.0 59.0 68.0 -10.0 -10.0 59.0 68.0 -10.0 -10.0 59.0 68.0 -10.0 -10.0 59.0 68.0 -10.0 -10.0 59.0 68.0 -10.0 -10.0 59.0 68.0 -10.0 -10.0 59.0 68.0 -10.0 -10.0 59.0 68.0 -10.0 -10.0 59.0 68.0 -10.0 -10.0 59.0 68.0 -10.0 -10.0 59.0 68.0 -10.0 97.0 9.0 59.0 68.0 97.0 9.0 59.0 68.0 97.0 9.0 59.0 68.0 97.0 9.0 59.0 68.0 -10.0 9.0 -10.0 -10.0 -10.0 9.0 -10.0 -10.0 -10.0 9.0 -10.0 -10.0 81.0 9.0 10.0 -10.0 -10.0 9.0 -10.0 -10.0 -10.0 10.0 -10.0 -10.0 81.0 9.0 10.0 -10.0 -10.0 10.0 -10.0 -10.0 -10.0 10.0 -10.0 -10.0 -10.0 10.0 -10.0 -10.0 -10.0 10.0 -10.0 -10.0 -10.0 10.0 -10.0 -10.0 -10.0 10.0 -10.0 -10.0 -10.0 10.0 -10.0 -10.0 -10.0 10.0 -10.0 -10.0 -10.0 10.0 -10.0 -10.0 -10.0 10.0 -10.0 -10.0 -10.0 10.0 -10.0 -10.0 -10.0 10.0 -10.0 -10.0 -10.0 10.0 -10.0 -10.0 -10.0 10.0 -10.0 -10.0 -10.0 10.0 -10.0 -10.0 -10.0 10.0 -10.0 -10.0 -10.0 10.0 -10.0 -10.0 -10.0 10.0 -10.0 -10.0 -10.0 10.0 -10.0 -10.0 -10.0 10.0 -10.0 -10.0 -10.0 10.0 -10.0 -10.0 -10.0 10.0 -10.0 -10.0 -10.0 10.0 -10.0 -10.0 -10.0 10.0 -10.0 -10.0 -10.0 10.0 -10.0 -10.0 -10.0 10.0 -10.0 -10.0 -10.0 10.0 -10.0 -10.0 -10.0 10.0 -10.0 -10.0 -10.0 10.0 -10.0 -10.0 -10.0 10.0 -10.0 -10.0 -10.0 10.0 -10.0 -10.0 -10.0 10.0 -10.0 -10.0 -10.0 59.0 68.0 -10.0 -10.0 59.0 68.0 -10.0 -10.0 59.0 68.0 -10.0 -10.0 59.0 68.0 -10.0 -10.0 59.0 68.0 -10.0 -10.0 59.0 68.0 -10.0 -10.0 59.0 68.0 -10.0 -10.0 59.0 68.0 -10.0 -10.0 59.0 68.0 -10.0 -10.0 59.0 68.0 -10.0 -10.0 59.0 68.0 -10.0 -10.0 59.0 68.0 -10.0 -10.0 59.0 68.0 -10.0 -10.0 59.0 68.0 -10.0 -10.0 59.0 68.0 -10.0 -10.0 59.0 68.0 -10.0 -10.0 59.0 68.0 -10.0 -10.0 59.0 68.0 -10.0 -10.0 59.0 68.0 -10.0 -10.0 10.0 -10.0 -10.0 -10.0 10.0 -10.0 -10.0 -10.0 10.0 -10.0 -10.0 -10.0 10.0 -10.0 -10.0 -10.0 10.0 -10.0 -10.0 -10.0 10.0 -10.0 -10.0 -10.0 10.0 -10.0 -10.0 -10.0 10.0 -10.0 -10.0 -10.0 10.0 -10.0 -10.0 -10.0 10.0 -10.0 -10.0 -10.0 10.0 -10.0 -10.0 -10.0 10.0 -10.0 -10.0 -10.0 10.0 -10.0 -10.0 80.0 10.0 58.0 -10.0 80.0 10.0 58.0 -10.0 -10.0 10.0 -10.0 -10.0 -10.0 10.0 -10.0 -10.0 80.0 10.0 58.0 -10.0 80.0 10.0 58.0 -10.0 -10.0 58.0 -10.0 -10.0 80.0 10.0 58.0 -10.0 -10.0 58.0 -10.0 -10.0 -10.0 58.0 -10.0 -10.0 -10.0 58.0 -10.0 -10.0 -10.0 58.0 -10.0 -10.0 -10.0 58.0 -10.0 -10.0 -10.0 58.0 -10.0 -10.0 -10.0 58.0 -10.0 -10.0 -10.0 58.0 -10.0 -10.0 -10.0 58.0 -10.0 -10.0 -10.0 58.0 -10.0 -10.0 -10.0 58.0 -10.0 -10.0 -10.0 58.0 -10.0 -10.0 -10.0 58.0 -10.0 -10.0 -10.0 58.0 -10.0 -10.0 -10.0 58.0 -10.0 -10.0 -10.0 58.0 -10.0 -10.0 -10.0 58.0 -10.0 -10.0 -10.0 58.0 -10.0 -10.0 -10.0 58.0 -10.0 -10.0 -10.0 58.0 -10.0 -10.0 -10.0 58.0 -10.0 -10.0 -10.0 58.0 -10.0 -10.0 -10.0 58.0 -10.0 -10.0 -10.0 58.0 -10.0 -10.0 -10.0 58.0 -10.0 -10.0 -10.0 58.0 -10.0 -10.0 -10.0 58.0 -10.0 -10.0 -10.0 58.0 -10.0 -10.0 -10.0 58.0 -10.0 -10.0 -10.0 58.0 -10.0 -10.0 -10.0 58.0 -10.0 -10.0 -10.0 58.0 -10.0 -10.0 -10.0 58.0 -10.0 -10.0 79.0 57.0 58.0 -10.0 -10.0 58.0 -10.0 -10.0 79.0 57.0 58.0 -10.0 79.0 57.0 58.0 -10.0 79.0 57.0 58.0 -10.0 79.0 57.0 58.0 -10.0 79.0 57.0 58.0 -10.0 79.0 57.0 58.0 -10.0 -10.0 57.0 -10.0 -10.0 79.0 57.0 58.0 -10.0 -10.0 57.0 -10.0 -10.0 -10.0 57.0 -10.0 -10.0 -10.0 57.0 -10.0 -10.0 -10.0 57.0 -10.0 -10.0 -10.0 57.0 -10.0 -10.0 -10.0 57.0 -10.0 -10.0 -10.0 57.0 -10.0 -10.0 -10.0 57.0 -10.0 -10.0 -10.0 57.0 -10.0 -10.0 -10.0 57.0 -10.0 -10.0 -10.0 57.0 -10.0 -10.0 -10.0 57.0 -10.0 -10.0 -10.0 57.0 -10.0 -10.0 -10.0 57.0 -10.0 -10.0 -10.0 57.0 -10.0 -10.0 -10.0 57.0 -10.0 -10.0 -10.0 57.0 -10.0 -10.0 -10.0 57.0 -10.0 -10.0 -10.0 57.0 -10.0 -10.0 -10.0 57.0 -10.0 -10.0 -10.0 57.0 -10.0 -10.0 -10.0 57.0 -10.0 -10.0 -10.0 57.0 -10.0 -10.0 -10.0 57.0 -10.0 -10.0 69.0 55.0 57.0 -10.0 69.0 55.0 57.0 -10.0 -10.0 57.0 -10.0 -10.0 69.0 55.0 57.0 -10.0 -10.0 57.0 -10.0 -10.0 -10.0 57.0 -10.0 -10.0 -10.0 57.0 -10.0 -10.0 -10.0 57.0 -10.0 -10.0 -10.0 57.0 -10.0 -10.0 -10.0 57.0 -10.0 -10.0 -10.0 57.0 -10.0 -10.0 -10.0 57.0 -10.0 -10.0 69.0 55.0 57.0 -10.0 69.0 55.0 57.0 -10.0 -10.0 59.0 64.0 -10.0 125.0 56.0 57.0 59.0 93.0 56.0 59.0 64.0 94.0 56.0 57.0 59.0 94.0 56.0 57.0 59.0 77.0 56.0 57.0 -10.0 77.0 56.0 57.0 -10.0 77.0 56.0 57.0 -10.0 77.0 56.0 57.0 -10.0 77.0 56.0 57.0 -10.0 93.0 56.0 59.0 64.0 -10.0 59.0 64.0 -10.0 -10.0 59.0 64.0 -10.0 93.0 56.0 59.0 64.0 -10.0 56.0 -10.0 -10.0 -10.0 56.0 -10.0 -10.0 -10.0 59.0 64.0 -10.0 -10.0 59.0 64.0 -10.0 -10.0 59.0 64.0 -10.0 -10.0 59.0 64.0 -10.0 -10.0 59.0 64.0 -10.0 -10.0 59.0 64.0 -10.0 -10.0 59.0 64.0 -10.0 -10.0 59.0 64.0 -10.0 -10.0 59.0 64.0 -10.0 -10.0 59.0 64.0 -10.0 -10.0 59.0 64.0 -10.0 -10.0 59.0 64.0 -10.0 -10.0 59.0 64.0 -10.0 -10.0 59.0 64.0 -10.0 -10.0 59.0 64.0 -10.0 -10.0 59.0 64.0 -10.0 -10.0 59.0 64.0 -10.0 124.0 59.0 63.0 64.0 -10.0 59.0 63.0 -10.0 -10.0 59.0 64.0 -10.0 -10.0 59.0 64.0 -10.0 -10.0 9.0 -10.0 -10.0 81.0 9.0 10.0 -10.0 -10.0 9.0 -10.0 -10.0 -10.0 10.0 -10.0 -10.0 81.0 9.0 10.0 -10.0 -10.0 10.0 -10.0 -10.0 -10.0 10.0 -10.0 -10.0 -10.0 10.0 -10.0 -10.0 -10.0 10.0 -10.0 -10.0 -10.0 10.0 -10.0 -10.0 -10.0 10.0 -10.0 -10.0 -10.0 10.0 -10.0 -10.0 -10.0 10.0 -10.0 -10.0 -10.0 10.0 -10.0 -10.0 -10.0 10.0 -10.0 -10.0 -10.0 10.0 -10.0 -10.0 -10.0 10.0 -10.0 -10.0 -10.0 10.0 -10.0 -10.0 -10.0 10.0 -10.0 -10.0 -10.0 10.0 -10.0 -10.0 -10.0 10.0 -10.0 -10.0 -10.0 10.0 -10.0 -10.0 -10.0 10.0 -10.0 -10.0 -10.0 10.0 -10.0 -10.0 -10.0 10.0 -10.0 -10.0 -10.0 10.0 -10.0 -10.0 -10.0 10.0 -10.0 -10.0 -10.0 10.0 -10.0 -10.0 -10.0 59.0 68.0 -10.0 -10.0 59.0 68.0 -10.0 -10.0 59.0 68.0 -10.0 -10.0 59.0 68.0 -10.0 -10.0 59.0 68.0 -10.0 -10.0 59.0 68.0 -10.0 -10.0 59.0 68.0 -10.0 -10.0 59.0 68.0 -10.0 -10.0 59.0 68.0 -10.0 -10.0 59.0 68.0 -10.0 -10.0 59.0 68.0 -10.0 -10.0 59.0 68.0 -10.0 -10.0 59.0 68.0 -10.0 -10.0 59.0 68.0 -10.0 -10.0 59.0 68.0 -10.0 -10.0 59.0 68.0 -10.0 -10.0 59.0 68.0 -10.0 -10.0 59.0 68.0 -10.0 -10.0 59.0 68.0 -10.0 -10.0 59.0 68.0 -10.0 -10.0 59.0 68.0 -10.0 -10.0 59.0 68.0 -10.0 97.0 9.0 59.0 68.0 97.0 9.0 59.0 68.0 97.0 9.0 59.0 68.0 97.0 9.0 59.0 68.0 -10.0 9.0 -10.0 -10.0 -10.0 9.0 -10.0 -10.0 -10.0 9.0 -10.0 -10.0 -10.0 9.0 -10.0 -10.0 -10.0 9.0 -10.0 -10.0 -10.0 9.0 -10.0 -10.0 81.0 9.0 10.0 -10.0 81.0 9.0 10.0 -10.0 -10.0 10.0 -10.0 -10.0 -10.0 10.0 -10.0 -10.0 -10.0 10.0 -10.0 -10.0 -10.0 10.0 -10.0 -10.0 -10.0 10.0 -10.0 -10.0 -10.0 10.0 -10.0 -10.0 -10.0 10.0 -10.0 -10.0 -10.0 10.0 -10.0 -10.0 -10.0 10.0 -10.0 -10.0 -10.0 10.0 -10.0 -10.0 -10.0 10.0 -10.0 -10.0 -10.0 10.0 -10.0 -10.0 -10.0 10.0 -10.0 -10.0 -10.0 10.0 -10.0 -10.0 -10.0 10.0 -10.0 -10.0 -10.0 10.0 -10.0 -10.0 -10.0 10.0 -10.0 -10.0 80.0 10.0 58.0 -10.0 -10.0 10.0 -10.0 -10.0 -10.0 58.0 -10.0 -10.0 80.0 10.0 58.0 -10.0 -10.0 58.0 -10.0 -10.0 -10.0 58.0 -10.0 -10.0 -10.0 58.0 -10.0 -10.0 -10.0 10.0 -10.0 -10.0 -10.0 10.0 -10.0 -10.0 -10.0 10.0 -10.0 -10.0 80.0 10.0 58.0 -10.0 80.0 10.0 58.0 -10.0 -10.0 58.0 -10.0 -10.0 -10.0 58.0 -10.0 -10.0 -10.0 58.0 -10.0 -10.0 -10.0 58.0 -10.0 -10.0 -10.0 58.0 -10.0 -10.0 -10.0 58.0 -10.0 -10.0 -10.0 58.0 -10.0 -10.0 -10.0 58.0 -10.0 -10.0 -10.0 58.0 -10.0 -10.0 -10.0 58.0 -10.0 -10.0 -10.0 58.0 -10.0 -10.0 -10.0 58.0 -10.0 -10.0 -10.0 58.0 -10.0 -10.0 -10.0 58.0 -10.0 -10.0 -10.0 58.0 -10.0 -10.0 -10.0 58.0 -10.0 -10.0 -10.0 58.0 -10.0 -10.0 -10.0 58.0 -10.0 -10.0 -10.0 58.0 -10.0 -10.0 -10.0 58.0 -10.0 -10.0 -10.0 58.0 -10.0 -10.0 -10.0 58.0 -10.0 -10.0 -10.0 58.0 -10.0 -10.0 79.0 55.0 57.0 58.0 -10.0 58.0 -10.0 -10.0 79.0 53.0 54.