# vtk DataFile Version 4.0
Data for surface elements
ASCII
DATASET POLYDATA
POINTS    15232  FLOAT
35296.531250   39808.921875   35099.015625
35204.050781   39789.226562   35201.347656
35300.699219   39798.425781   35000.160156
35291.792969   39825.816406   35199.871094
35201.289062   39797.031250   35300.328125
35303.964844   39789.648438   34901.093750
35391.753906   39825.980469   34899.839844
35391.828125   39840.855469   35000.386719
35448.667969   39858.281250   34950.347656
35503.906250   39889.726562   35001.226562
35591.636719   39926.156250   34999.832031
35500.898438   39897.945312   35100.199219
35408.675781   39858.160156   35099.769531
35601.562500   39945.125000   35100.417969
35650.828125   39958.738281   35050.324219
35351.894531   39840.093750   35149.941406
35409.195312   39870.156250   35200.773438
35351.039062   39858.062500   35250.410156
35301.527344   39844.984375   35300.445312
35497.796875   39906.152344   35199.726562
35496.597656   39912.937500   35299.105469
35403.527344   39885.867188   35301.207031
35600.519531   39948.765625   35200.070312
35796.312500   40014.070312   35098.894531
35703.453125   39986.238281   35101.160156
35791.832031   40027.039062   35199.718750
35703.062500   39991.421875   35200.398438
35849.496094   40040.351562   35149.886719
35700.542969   39998.773438   35300.105469
35598.761719   39954.359375   35299.687500
35908.882812   40070.980469   35200.738281
35848.593750   40057.394531   35250.324219
35791.812500   40040.707031   35300.351562
35998.421875   40104.671875   35199.601562
35997.718750   40109.921875   35299.785156
35903.738281   40084.476562   35301.191406
36100.953125   40146.195312   35200.257812
36203.859375   40183.984375   35201.273438
36296.328125   40214.292969   35299.113281
36203.011719   40187.199219   35300.511719
36100.375000   40149.003906   35300.035156
35196.394531   39809.367188   35399.015625
35103.843750   39789.871094   35501.203125
35191.707031   39826.023438   35499.839844
35249.382812   39839.355469   35449.921875
35299.605469   39852.765625   35399.875000
35101.101562   39797.410156   35600.273438
35201.656250   39844.921875   35600.445312
35308.812500   39871.101562   35500.707031
35250.921875   39858.492188   35550.347656
35098.019531   39805.480469   35699.808594
35096.394531   39813.687500   35798.941406
35091.707031   39827.347656   35899.671875
35200.550781   39848.695312   35700.078125
35149.562500   39840.019531   35849.910156
35198.839844   39854.171875   35799.707031
35001.117188   39797.378906   36000.253906
35101.605469   39844.886719   36000.414062
34909.132812   39770.242188   36100.777344
34997.843750   39806.007812   36099.722656
35209.453125   39869.433594   35900.886719
35151.128906   39858.144531   35950.398438
35203.562500   39885.757812   36001.304688
35296.675781   39912.742188   35999.117188
35300.539062   39898.781250   35800.101562
35297.996094   39905.476562   35899.781250
35203.242188   39890.691406   36100.574219
35291.796875   39927.113281   36099.707031
35100.523438   39848.750000   36100.074219
34809.019531   39770.667969   36400.734375
34902.656250   39792.300781   36300.593750
34898.519531   39804.355469   36399.640625
34896.527344   39813.273438   36499.042969
34803.429688   39786.250000   36501.167969
34996.386719   39813.628906   36198.960938
34903.503906   39785.945312   36201.195312
34991.898438   39826.816406   36299.718750
35052.015625   39840.984375   36249.933594
35108.679688   39858.191406   36199.777344
35201.222656   39897.132812   36200.285156
35109.222656   39870.011719   36300.800781
35197.894531   39905.863281   36299.726562
35301.597656   39944.937500   36200.417969
35000.906250   39846.035156   36400.269531
35051.054688   39858.203125   36350.375000
35196.402344   39913.582031   36398.960938
35103.593750   39885.707031   36401.242188
35300.507812   39948.785156   36300.070312
35191.863281   39926.906250   36499.710938
35102.683594   39892.250000   36500.617188
34999.425781   39853.167969   36499.828125
35252.003906   39941.011719   36449.929688
35308.648438   39958.261719   36399.769531
34803.105469   39791.082031   36600.531250
34891.742188   39827.246094   36599.687500
34801.089844   39797.441406   36700.257812
34709.101562   39770.390625   36800.777344
34797.671875   39806.527344   36799.730469
34901.507812   39845.203125   36700.382812
34797.800781   39809.542969   36899.824219
34703.683594   39784.542969   36901.187500
34900.871094   39848.179688   36800.082031
34949.558594   39840.179688   36549.910156
35009.046875   39870.648438   36600.746094
34951.035156   39858.433594   36650.347656
35098.402344   39904.714844   36599.617188
35098.105469   39908.589844   36699.878906
35003.750000   39884.367188   36701.222656
35201.039062   39945.945312   36600.281250
35309.218750   39970.000000   36500.808594
35251.039062   39958.328125   36550.371094
35002.878906   39887.562500   36800.539062
35096.160156   39914.992188   36798.945312
35091.804688   39927.027344   36899.707031
35003.167969   39891.101562   36900.355469
34899.988281   39849.687500   36900.000000
35200.105469   39949.605469   36700.011719
35151.988281   39941.171875   36849.910156
35208.640625   39958.324219   36799.773438
34403.789062   39684.308594   37401.324219
34498.007812   39708.929688   37399.921875
34501.062500   39697.746094   37200.078125
34498.097656   39705.273438   37299.808594
34403.031250   39685.828125   37500.347656
34497.695312   39710.410156   37500.070312
34403.035156   39685.554688   37600.273438
34497.386719   39711.609375   37600.019531
34497.621094   39710.511719   37700.128906
34402.992188   39686.105469   37700.171875
34590.406250   39744.085938   37100.019531
34600.988281   39748.343750   37000.046875
34796.113281   39815.222656   36998.933594
34702.671875   39788.406250   37000.433594
34791.789062   39827.214844   37099.675781
34702.800781   39792.121094   37100.332031
34849.539062   39840.140625   37049.890625
34898.906250   39853.929688   36999.734375
34600.226562   39749.546875   37200.007812
34699.765625   39800.460938   37199.980469
34801.425781   39845.488281   37200.339844
34909.343750   39869.800781   37100.871094
34851.121094   39858.222656   37150.402344
34699.605469   39800.773438   37300.000000
34609.937500   39755.183594   37299.992188
35000.742188   39898.273438   37000.171875
35091.761719   39940.820312   37000.347656
34997.585938   39906.726562   37099.679688
35209.421875   39969.648438   36900.871094
35148.703125   39957.046875   36950.386719
35203.718750   39984.453125   37001.292969
35297.945312   40009.078125   36999.925781
35300.855469   39998.066406   36800.167969
35297.863281   40005.843750   36899.828125
35203.156250   39985.417969   37100.355469
35297.582031   40010.703125   37100.082031
35100.867188   39948.277344   37100.074219
34997.609375   39910.308594   37199.835938
34903.636719   39884.800781   37201.191406
34997.199219   39912.339844   37300.019531
34902.949219   39886.433594   37300.226562
34801.066406   39848.207031   37300.035156
35100.398438   39949.074219   37200.011719
35297.664062   40010.289062   37200.113281
35203.191406   39985.023438   37200.296875
35297.679688   40010.191406   37300.105469
35203.300781   39984.621094   37300.324219
35100.304688   39949.140625   37300.003906
34599.371094   39751.011719   37399.996094
34699.964844   39800.066406   37400.000000
34790.714844   39843.332031   37400.007812
34700.136719   39799.726562   37500.000000
34599.265625   39751.191406   37500.003906
34599.175781   39751.398438   37600.007812
34700.144531   39799.718750   37600.000000
34790.871094   39842.980469   37500.011719
34790.867188   39842.984375   37600.019531
34700.117188   39799.769531   37700.000000
34609.507812   39756.109375   37700.007812
34997.164062   39912.410156   37400.078125
34902.863281   39886.707031   37400.117188
35100.261719   39949.242188   37400.003906
34997.136719   39912.476562   37500.085938
34902.945312   39886.417969   37500.125000
35100.265625   39949.242188   37500.003906
35297.730469   40010.050781   37400.105469
35203.296875   39984.644531   37400.339844
35297.675781   40010.238281   37500.105469
35203.312500   39984.578125   37500.339844
34997.183594   39912.320312   37600.082031
34902.925781   39886.476562   37600.136719
35100.269531   39949.234375   37600.000000
34997.160156   39912.363281   37700.078125
34903.007812   39886.140625   37700.144531
34801.285156   39847.480469   37700.019531
35100.273438   39949.226562   37700.003906
35297.714844   40010.140625   37600.101562
35203.289062   39984.671875   37600.339844
35297.695312   40010.183594   37700.097656
35203.312500   39984.585938   37700.339844
34301.144531   39647.718750   37900.019531
34301.140625   39647.734375   38000.019531
34497.593750   39710.593750   37800.125000
34403.089844   39685.343750   37800.273438
34497.648438   39710.410156   37900.113281
34403.093750   39685.324219   37900.296875
34497.652344   39710.402344   38000.105469
34403.089844   39685.347656   38000.296875
34403.089844   39685.343750   38100.296875
34497.652344   39710.406250   38100.105469
34301.136719   39647.734375   38100.019531
34099.695312   39550.667969   38499.996094
34109.941406   39555.117188   38400.000000
34199.847656   39600.304688   38300.000000
34301.136719   39647.734375   38200.019531
34199.812500   39600.371094   38400.000000
34301.152344   39647.707031   38300.023438
34199.492188   39601.011719   38500.003906
34301.031250   39648.050781   38400.031250
34497.636719   39710.437500   38200.105469
34403.089844   39685.335938   38200.296875
34497.734375   39710.109375   38300.097656
34403.093750   39685.328125   38300.300781
34403.058594   39685.484375   38400.308594
34497.429688   39711.398438   38400.007812
34497.531250   39710.847656   38500.152344
34402.867188   39686.804688   38500.117188
34300.871094   39648.617188   38500.007812
34599.246094   39751.230469   37800.007812
34599.269531   39751.187500   37900.007812
34700.121094   39799.757812   37800.000000
[...]
POINT_DATA       15232
SCALARS laplaceTM FLOAT 1
LOOKUP_TABLE default
     0.983441
     0.971861
     0.993160
     0.974956
     0.964996
     1.000000
     1.000000
     0.994590
     1.000000
     1.000000
     1.000000
     0.990714
     0.987263
     0.994085
     1.000000
     0.981115
     0.978778
     0.972663
     0.966983
     0.981970
     0.973180
     0.969911
     0.985663
     1.000000
     1.000000
     0.992940
     0.989941
     1.000000
     0.980567
     0.976741
     1.000000
     0.991293
     0.984032
     1.000000
     0.990431
     0.988112
     1.000000
     1.000000
     1.000000
     0.995109
     0.992403
     0.954584
     0.942849
     0.945788
     0.951876
     0.957918
     0.936315
     0.937593
     0.949165
     0.943118
     0.927318
     0.916668
     0.901998
     0.928230
     0.910820
     0.917778
     0.884490
     0.891465
     0.874324
     0.877461
     0.907111
     0.899201
     0.896272
     0.900139
     0.920494
     0.910250
     0.886469
     0.890027
     0.882124
     0.844348
     0.856643
     0.847613
     0.838824
     0.837200
     0.869495
     0.867423
     0.859935
     0.866698
     0.873372
     0.876864
     0.863976
     0.867291
     0.880666
     0.850926
     0.857282
     0.857764
     0.854289
     0.871010
     0.847936
     0.844769
     0.841521
     0.854852
     0.861703
     0.827175
     0.828705
     0.813740
     0.798195
     0.802902
     0.817936
     0.792720
     0.787858
     0.807477
     0.835238
     0.831890
     0.825013
     0.834990
     0.825060
     0.821614
     0.838511
     0.851986
     0.845122
     0.811517
     0.815183
     0.805121
     0.801580
     0.797343
     0.828715
     0.812259
     0.819254
     0.730793
     0.735259
     0.753050
     0.746184
     0.726234
     0.727829
     0.718387
     0.719402
     0.709810
     0.708472
     0.764393
     0.773137
     0.783117
     0.778543
     0.773671
     0.769663
     0.780730
     0.787599
     0.756835
     0.760933
     0.765006
     0.778479
     0.771518
     0.752114
     0.748893
     0.791778
     0.795375
     0.782147
     0.809452
     0.802366
     0.799529
     0.803120
     0.822628
     0.812852
     0.789943
     0.793395
     0.786123
     0.772632
     0.768914
     0.763163
     0.759710
     0.755943
     0.776523
     0.783718
     0.780310
     0.774078
     0.770704
     0.766974
     0.739428
     0.743096
     0.746401
     0.734062
     0.730751
     0.721811
     0.724879
     0.737193
     0.727884
     0.715462
     0.712670
     0.753724
     0.750408
     0.757452
     0.744280
     0.741059
     0.747931
     0.764458
     0.761120
     0.754847
     0.751544
     0.734802
     0.731647
     0.738394
     0.725275
     0.722157
     0.718788
     0.728827
     0.745234
     0.741961
     0.735609
     0.732361
     0.682152
     0.675261
     0.699301
     0.695735
     0.689427
     0.686202
     0.679773
     0.677125
     0.667130
     0.669857
     0.665163
     0.619276
     0.624886
     0.634006
     0.651678
     0.627948
     0.641203
     0.620924
     0.632498
     0.659682
     0.656240
     0.649719
     0.646053
     0.636603
     0.640076
     0.630565
     0.627455
     0.624043
     0.702562
     0.692780
     0.705853
     0.708880
     0.696164
     0.683024
     0.673188
     0.686438
     0.699239
     0.676669
     0.689547
     0.715697
     0.712597
     0.719226
     0.706073
     0.702974
     0.709591
     0.725968
     0.722737
     0.716307
     0.713088
     0.696409
     0.693305
     0.699924
     0.686716
     0.683602
     0.679819
     0.690230
     0.706622
     0.703413
     0.696914
     0.693714
     0.663285
     0.666874
     0.670071
     0.657103
     0.653825
     0.634460
     0.644107
     0.647380
     0.660690
     0.637694
     0.641277
     0.650975
     0.677000
     0.673879
     0.680514
     0.667269
     0.664147
     0.670780
     0.687186
     0.683993
     0.677441
     0.674254
     0.657522
     0.654432
     0.661029
     0.644825
     0.647725
     0.651264
     0.667692
     0.664497
     0.657900
     0.654743
     0.961016
     0.964007
     0.951943
     0.970469
     0.967915
     0.961371
     0.955127
     0.958434
     0.961843
     0.971177
     0.942729
     0.939866
     0.933054
     0.930486
     0.939555
     0.945824
     0.949118
     0.952251
     0.939654
     0.936593
     0.974830
     0.958918
     0.965350
     0.943076
     0.956200
     0.949517
     0.923261
     0.929926
     0.930126
     0.926795
     0.920277
     0.917149
     0.913690
     0.927060
     0.933562
     0.897061
     0.903777
     0.907354
     0.910575
     0.924264
     0.917392
     0.894277
     0.897580
     0.887323
     0.884322
     0.887917
     0.878013
     0.874715
     0.901228
     0.884909
     0.891530
     0.865004
     0.868661
     0.855287
     0.882157
     0.875270
     0.845635
     0.842071
     0.858968
     0.835713
     0.832405
     0.842713
     0.849612
     0.826338
     0.839871
     0.832970
     0.981281
     0.978319
     0.971888
     0.968828
     0.978311
     0.984208
     0.959420
     0.950032
     0.946548
     0.962964
     0.975884
     0.969343
     0.937087
     0.940367
     0.927539
     0.947148
     0.953649
     0.944529
     0.937712
     0.931155
     0.934800
     0.938457
     0.957419
     0.947969
     0.917977
     0.914449
     0.908142
     0.904876
     0.915001
     0.921592
     0.925265
     0.928668
     0.915645
     0.912272
     0.987865
     0.992335
     0.979473
     1.000000
     1.000000
     0.991378
     0.984125
     1.000000
     0.988878
     0.970476
     0.966651
     0.960977
     0.967977
     0.974767
     0.992423
     0.979199
     0.983252
     0.965654
     0.969471
     1.000000
     1.000000
     1.000000
     0.991031
     0.988364
     0.991916
     0.978082
     0.973767
     1.000000
     1.000000
     0.990076
     0.981944
     1.000000
     0.986307
     0.951853
     0.958575
     0.955823
     0.959491
     0.966731
     0.946161
     0.942640
     0.950083
     0.964156
     0.956921
     0.935683
     0.932949
     0.926003
     0.919362
     0.936402
     0.926708
     0.923051
     0.930442
     0.940642
     0.967823
     0.953964
     0.957459
     0.964754
     0.972070
     0.944083
     0.947795
     0.961642
     0.954549
     0.934167
     0.937487
     0.988373
     0.975220
     0.964751
     0.977941
     0.954683
     0.951311
     0.967808
     0.944530
     0.941432
     0.951342
     0.957845
     0.872257
     0.875845
     0.895179
     0.885470
     0.865954
     0.862656
     0.898481
     0.905335
     0.905969
     0.902446
     0.896349
     0.892840
     0.889171
     0.909692
     0.872852
     0.879483
     0.886493
     0.883150
     0.893393
     0.900015
     0.873455
     0.870097
     0.877131
     0.890680
     0.883768
     0.852933
     0.843206
     0.856609
     0.833483
     0.829978
     0.846930
     0.823753
     0.820354
     0.816642
     0.837199
     0.863221
     0.860222
     0.863748
     0.854102
     0.850602
     0.857751
     0.867814
     0.840916
     0.844244
     0.831220
     0.827854
     0.851144
     0.848433
     0.841529
     0.834903
     0.861429
     0.851778
     0.838564
     0.913432
     0.916789
     0.903713
     0.923748
     0.921013
     0.913972
     0.907046
     0.924358
     0.911047
     0.894031
     0.880793
     0.884126
     0.891127
     0.898042
     0.914375
     0.901349
     0.904987
     0.888296
     0.891609
     0.921317
     0.927986
     0.918518
     0.911607
     0.931538
     0.934661
     0.948296
     0.941455
     0.921761
     0.908566
     0.911817
     0.898908
     0.895634
     0.918751
     0.925576
     0.915834
     0.909018
     0.902479
     0.905963
     0.909421
     0.928684
     0.918999
     0.871151
     0.874808
     0.881404
     0.864751
     0.881966
     0.878404
     0.885556
     0.872083
     0.868803
     0.878956
     0.841905
     0.848892
     0.855786
     0.859100
     0.862750
     0.876193
     0.869336
     0.846085
     0.849407
     0.889175
     0.892450
     0.879486
     0.896396
     0.899615
     0.886761
     0.883485
     0.869882
     0.866331
     0.873461
     0.860036
     0.856761
     0.853093
     0.866886
     0.877087
     0.880385
     0.890346
     0.864138
     0.867438
     1.000000
     0.994609
     1.000000
     1.000000
     0.991729
     0.990213
     1.000000
     0.994250
     1.000000
     1.000000
     1.000000
     1.000000
     0.984200
     0.980349
     0.982769
     0.973175
     0.970655
     0.979498
     0.985533
     0.960896
     0.963608
     0.951241
     0.976509
     0.970053
     0.979301
     0.966928
     0.988957
     0.969726
     0.957565
     0.954686
     0.990664
     0.995800
     0.992624
     0.987433
     0.981843
     0.995181
     1.000000
     0.984736
     0.988127
     0.975959
     0.972993
     0.966874
     0.960777
     0.976226
     0.964024
     0.979836
     0.992765
     0.967412
     0.984123
     0.971009
     0.977516
     1.000000
     1.000000
     0.991306
     1.000000
     1.000000
     0.988171
     0.991099
     0.978550
     0.975027
     0.994047
     1.000000
     0.982002
     0.988252
     1.000000
     1.000000
     0.989879
     0.985948
     0.993281
     1.000000
     1.000000
     1.000000
     0.938350
     0.941372
     0.948109
     0.945130
     0.938494
     0.932076
     0.948137
     0.938754
     0.935423
     0.951499
     0.922491
     0.929088
     0.925970
     0.935756
     0.942137
     0.916413
     0.913236
     0.933025
     0.926363
     0.919930
     0.954906
     0.958308
     0.948832
     0.945609
     0.961878
     0.968361
     0.955415
     0.936250
     0.926817
     0.923420
     0.939828
     0.952632
     0.946172
     0.906480
     0.903624
     0.896854
     0.906843
     0.897262
     0.893860
     0.910450
     0.884352
     0.887664
     0.878040
     0.874757
     0.871117
     0.900902
     0.881754
     0.891334
     0.917332
     0.914035
     0.930468
     0.907830
     0.904532
     0.911553
     0.921027
     0.898310
     0.894992
     0.902050
     0.888768
     0.885432
     0.892522
     0.956255
     0.943401
     0.965523
     0.934136
     0.937595
     0.946994
     0.928108
     0.924719
     0.918643
     0.915253
     0.909191
     0.905760
     0.899787
     0.896252
     0.969180
     0.959886
     0.972862
     0.979365
     0.976639
     0.980506
     0.967395
     0.970912
     0.963599
     0.950633
     0.957183
     0.954584
     0.947888
     0.941315
     0.958050
     0.948647
     0.945027
     0.961874
     0.984460
     0.991551
     0.977780
     0.991171
     0.988313
     1.000000
     0.978683
     0.975219
     0.982088
     0.988316
     0.994080
     0.968411
     0.965634
     0.969266
     0.959909
     0.956302
     0.952484
     0.972954
     0.986017
     0.979454
     0.922456
     0.931916
     0.939296
     0.935690
     0.929703
     0.926289
     0.936533
     0.943084
     0.903529
     0.913373
     0.916836
     0.920654
     0.934009
     0.927194
     0.907347
     0.910831
     0.946893
     0.950364
     0.937501
     0.957174
     0.963692
     0.954705
     0.947889
     0.941342
     0.945154
     0.948916
     0.967548
     0.958223
     0.928077
     0.924417
     0.918711
     0.915053
     0.931954
     0.935857
     0.939366
     0.926453
     0.922924
     0.806908
     0.797190
     0.778208
     0.787884
     0.768556
     0.758533
     0.748894
     0.739249
     0.720295
     0.729968
     0.710599
     0.700507
     0.690773
     0.681018
     0.661469
     0.671250
     0.814139
     0.810633
     0.817792
     0.804290
     0.800962
     0.811177
     0.791282
     0.794989
     0.808447
     0.801575
     0.781610
     0.821492
     0.811790
     0.825220
     0.828939
     0.815873
     0.819236
     0.832617
     0.802090
     0.798597
     0.805773
     0.792376
     0.789031
     0.785376
     0.809532
     0.813283
     0.822979
     0.799832
     0.771949
     0.775715
     0.762292
     0.765667
     0.752635
     0.742974
     0.755997
     0.782678
     0.779370
     0.786367
     0.796065
     0.772990
     0.769695
     0.776673
     0.790137
     0.793903
     0.803590
     0.780442
     0.784213
     0.763300
     0.760013
     0.766977
     0.753606
     0.750326
     0.746323
     0.770744
     0.774135
     0.761041
     0.757658
     0.839205
     0.836226
     0.839814
     0.829976
     0.826667
     0.836925
     0.843785
     0.817011
     0.820688
     0.807337
     0.834107
     0.827255
     0.824267
     0.827750
     0.847090
     0.837407
     0.818045
     0.814722
     0.811085
     0.850736
     0.857302
     0.857785
     0.854318
     0.848107
     0.844767
     0.841114
     0.861466
     0.831440
     0.838436
     0.835115
     0.842159
     0.851813
     0.828768
     0.825442
     0.821761
     0.832500
     0.797668
     0.787998
     0.791782
     0.801439
     0.781423
     0.778287
     0.768494
     0.764808
     0.788637
     0.785727
     0.778517
     0.771579
     0.805072
     0.808352
     0.795527
     0.798637
     0.788884
     0.779176
     0.775355
     0.812078
     0.802389
     0.819096
     0.815762
     0.822833
     0.809416
     0.806077
     0.813160
     0.792696
     0.782609
     0.799730
     0.796386
     0.803478
     0.790036
     0.786692
     0.793788
     0.733305
     0.737021
     0.723628
     0.713939
     0.717662
     0.727346
     0.707279
     0.704202
     0.743903
     0.740632
     0.747950
     0.734183
     0.730948
     0.751334
     0.738223
     0.741621
     0.745401
     0.755103
     0.721363
     0.724409
     0.728105
     0.711512
     0.714473
     0.714611
     0.718366
     0.734998
     0.731868
     0.722032
     0.694377
     0.697408
     0.704320
     0.684569
     0.687752
     0.701107
     0.678001
     0.674788
     0.681608
     0.691749
     0.668216
     0.665004
     0.704863
     0.708241
     0.695127
     0.725113
     0.712233
     0.715449
     0.702600
     0.698885
     0.688451
     0.685338
     0.675464
     0.695686
     0.692718
     0.685485
     0.678520
     0.705679
     0.695851
     0.686061
     0.682264
     0.758728
     0.761970
     0.749143
     0.765663
     0.752222
     0.739294
     0.742230
     0.732069
     0.742439
     0.732693
     0.728882
     0.746628
     0.756350
     0.736129
     0.769482
     0.759781
     0.772907
     0.780335
     0.776993
     0.784089
     0.770619
     0.767303
     0.763602
     0.774380
     0.750074
     0.753907
     0.743499
     0.740329
     0.757714
     0.760854
     0.764660
     0.747864
     0.750765
     0.751063
     0.754935
     0.709788
     0.719539
     0.722963
     0.713217
     0.717039
     0.726784
     0.699636
     0.689478
     0.706589
     0.703430
     0.693576
     0.713863
     0.710927
     0.703656
     0.696667
     0.730515
     0.733622
     0.740602
     0.720828
     0.723917
     0.727706
     0.737443
     0.741321
     0.744809
     0.731592
     0.714107
     0.704324
     0.700467
     0.707806
     0.718354
     0.721855
     0.735076
     0.715296
     0.712071
     0.725746
     0.868443
     0.865112
     0.858810
     0.855489
     0.872162
     0.862558
     0.849195
     0.845832
     0.839542
     0.836197
     0.843316
     0.852943
     0.879206
     0.875857
     0.882971
     0.869631
     0.866268
     0.860043
     0.856668
     0.864206
     0.873791
     0.850460
     0.847053
     0.854232
     0.829904
     0.826524
     0.820229
     0.816871
     0.833674
     0.824018
     0.810571
     0.807179
     0.800877
     0.797508
     0.805055
     0.814737
     0.840963
     0.837416
     0.831197
     0.827816
     0.838087
     0.844690
     0.818180
     0.821967
     0.835459
     0.828571
     0.808523
     0.886748
     0.890138
     0.877227
     0.867671
     0.881013
     0.858101
     0.861590
     0.871539
     0.848501
     0.851997
     0.838908
     0.829294
     0.825685
     0.842778
     0.819638
     0.816165
     0.812390
     0.833149
     0.896976
     0.894406
     0.887564
     0.897855
     0.888339
     0.884732
     0.901728
     0.875307
     0.878803
     0.869241
     0.865790
     0.892603
     0.873123
     0.883065
     0.909095
     0.905620
     0.916061
     0.896133
     0.913486
     0.906612
     0.900027
     0.917023
     0.930381
     0.907586
     0.903860
     0.921001
     0.886619
     0.877090
     0.880663
     0.890586
     0.898192
     0.894470
     0.911545
     0.888542
     0.885010
     0.895470
     0.902107
     0.859712
     0.856205
     0.850241
     0.846615
     0.863584
     0.837032
     0.840520
     0.827427
     0.823901
     0.847459
     0.854084
     0.844944
     0.837989
     0.831319
     0.857992
     0.848490
     0.835204
     0.867550
     0.861952
     0.871519
     0.875495
     0.879444
     0.893009
     0.886077
     0.865942
     0.838749
     0.845724
     0.852409
     0.856360
     0.859981
     0.869962
     0.843225
     0.846802
     0.791202
     0.787800
     0.781491
     0.778111
     0.785291
     0.795372
     0.771799
     0.768383
     0.762070
     0.758676
     0.765885
     0.775593
     0.798857
     0.802743
     0.789179
     0.792679
     0.779489
     0.769789
     0.782996
     0.752357
     0.748937
     0.742595
     0.739230
     0.746829
     0.756562
     0.729603
     0.732815
     0.719731
     0.722617
     0.737077
     0.722984
     0.726916
     0.760079
     0.773302
     0.750361
     0.763997
     0.740632
     0.744588
     0.754297
     0.734147
     0.730860
     0.809978
     0.806534
     0.814237
     0.800314
     0.796873
     0.804171
     0.790640
     0.787196
     0.794501
     0.780955
     0.777506
     0.784820
     0.771257
     0.767806
     0.775127
     0.761539
     0.758112
     0.765417
     0.748516
     0.751766
     0.755694
     0.738656
     0.741496
     0.741962
     0.745963
     0.817784
     0.808128
     0.812090
     0.822133
     0.825681
     0.816061
     0.829606
     0.798464
     0.802038
     0.788790
     0.792372
     0.806422
     0.810431
     0.820058
     0.796766
     0.800376
     0.836262
     0.833481
     0.837318
     0.827573
     0.824024
     0.841238
     0.851205
     0.834545
     0.814453
     0.818432
     0.808182
     0.804806
     0.832033
     0.825073
     0.822410
     0.825978
     0.845228
     0.835615
     0.812827
     0.815513
     0.779105
     0.769407
     0.773406
     0.783094
     0.787097
     0.777416
     0.791117
     0.759697
     0.749977
     0.753998
     0.763708
     0.767730
     0.781437
     0.758038
     0.762078
     0.771762
     0.795060
     0.798407
     0.785341
     0.805467
     0.788830
     0.792825
     0.802472
     0.775647
     0.779175
     0.766089
     0.769423
     0.773453
     0.783574
     0.816263
     0.806601
     1.000000
     1.000000
     1.000000
     0.989933
     0.993336
     1.000000
     0.980628
     0.976742
     0.971085
     0.984586
     0.977940
     1.000000
     0.991626
     0.988453
     0.991310
     1.000000
     0.978951
     0.975447
     1.000000
     0.994180
     1.000000
     0.982410
     0.988547
     1.000000
     1.000000
     0.990356
     0.986391
     0.993845
     1.000000
     0.962110
     0.968652
     0.946155
     0.952800
     0.943513
     0.936880
     0.969669
     0.965951
     0.960446
     0.956692
     0.973459
     0.947386
     0.934259
     0.951014
     0.957843
     0.964363
     0.938084
     0.955525
     0.948662
     0.942047
     0.979916
     0.977401
     0.981440
     0.972195
     0.968413
     0.985662
     1.000000
     0.992446
     0.979020
     0.959252
     0.950027
     0.946059
     0.963460
     0.976787